Toluene_maple
   15
    1MOL     C7    1   0.000   0.150  -0.000
    1MOL     C1    2   0.000   0.000  -0.000
    1MOL     C2    3   0.120  -0.071   0.000
    1MOL     C3    4   0.120  -0.209   0.000
    1MOL     C4    5   0.000  -0.279  -0.000
    1MOL     C5    6  -0.120  -0.209   0.000
    1MOL     C6    7  -0.120  -0.071  -0.000
    1MOL    H71    8   0.102   0.189   0.000
    1MOL    H72    9  -0.051   0.189   0.088
    1MOL    H73   10  -0.051   0.189  -0.088
    1MOL     H2   11   0.213  -0.016   0.000
    1MOL     H3   12   0.214  -0.263  -0.000
    1MOL     H4   13  -0.000  -0.387  -0.000
    1MOL     H5   14  -0.214  -0.263   0.000
    1MOL     H6   15  -0.213  -0.016   0.000
   0.92772   1.07646   0.67610
