; File Toluene_maple.top was generated by MAPLE parmfit
; This is a standalone topology file
[ defaults ]
; nbfunc        comb-rule       gen-pairs       fudgeLJ fudgeQQ
1               2               yes             0.5     0.83333333

[ atomtypes ]
; name    at.num    mass    charge ptype  sigma      epsilon
c3              6   12.011000  0.00000000  A    0.33977095     0.4510352
ca              6   12.011000  0.00000000  A    0.33152123     0.4133792
hc              1    1.008000  0.00000000  A    0.26001770     0.0870272
ha              1    1.008000  0.00000000  A    0.26254785     0.0673624

[ moleculetype ]
; Name            nrexcl
MOL             3

[ atoms ]
; nr       type  resnr residue  atom   cgnr    charge       mass
; residue    1 MOL rtp MOL q 0.0
    1         c3      1     MOL     C7      1  -0.05380000   12.011000
    2         ca      1     MOL     C1      2  -0.07730000   12.011000
    3         ca      1     MOL     C2      3  -0.11300000   12.011000
    4         ca      1     MOL     C3      4  -0.10850000   12.011000
    5         ca      1     MOL     C4      5  -0.11700000   12.011000
    6         ca      1     MOL     C5      6  -0.10850000   12.011000
    7         ca      1     MOL     C6      7  -0.11300000   12.011000
    8         hc      1     MOL    H71      8  0.04336700    1.008000
    9         hc      1     MOL    H72      9  0.04336700    1.008000
   10         hc      1     MOL    H73     10  0.04336700    1.008000
   11         ha      1     MOL     H2     11  0.11200000    1.008000
   12         ha      1     MOL     H3     12  0.11200000    1.008000
   13         ha      1     MOL     H4     13  0.11200000    1.008000
   14         ha      1     MOL     H5     14  0.11200000    1.008000
   15         ha      1     MOL     H6     15  0.11200000    1.008000

[ bonds ]
; ai     aj funct         c0         c1
     1      2     1     0.15020 216793.447851
     1      8     1     0.10885 299475.939872
     1      9     1     0.10905 294824.506382
     1     10     1     0.10905 294845.999302
     2      3     1     0.13889 323700.169708
     2      7     1     0.13927 314988.264266
     3      4     1     0.13875 337192.403591
     3     11     1     0.10835 314666.608502
     4      5     1     0.13855 337821.929317
     4     12     1     0.10822 319008.360554
     5      6     1     0.13887 331273.311606
     5     13     1     0.10809 321490.674147
     6      7     1     0.13846 341216.102144
     6     14     1     0.10824 318419.296592
     7     15     1     0.10840 313526.476102

[ pairs ]
; ai     aj funct
     1      4     1
     1      6     1
     1     11     1
     1     15     1
     2      5     1
     2     12     1
     2     14     1
     3      6     1
     3      8     1
     3      9     1
     3     10     1
     3     13     1
     3     15     1
     4      7     1
     4     14     1
     5     11     1
     5     15     1
     6     12     1
     7      8     1
     7      9     1
     7     10     1
     7     11     1
     7     13     1
    11     12     1
    12     13     1
    13     14     1
    14     15     1

[ angles ]
; ai     aj     ak funct         c0         c1
     2      1      8     1  110.877225    398.888606
     2      1      9     1  110.924177    464.234931
     2      1     10     1  110.923871    455.961038
     8      1      9     1  108.150852    268.641889
     8      1     10     1  108.151332    259.364255
     9      1     10     1  107.687196    252.485575
     1      2      3     1  120.803169    813.448432
     1      2      7     1  120.526912    816.123498
     3      2      7     1  118.669919    952.859936
     2      3      4     1  120.826982    951.796829
     2      3     11     1  119.176197    276.263418
     4      3     11     1  119.996822    278.720627
     3      4      5     1  120.028453    941.700402
     3      4     12     1  119.816899    283.496205
     5      4     12     1  120.154647    280.172534
     4      5      6     1  119.653428    899.969064
     4      5     13     1  120.168887    277.479225
     6      5     13     1  120.177685    277.795380
     5      6      7     1  120.085545    909.015682
     5      6     14     1  119.964894    279.784626
     7      6     14     1  119.949560    279.856847
     2      7      6     1  120.735673    899.225099
     2      7     15     1  119.327315    281.963321
     6      7     15     1  119.937012    282.577563

[ dihedrals ]
; ai     aj     ak     al funct         c0         c1    mult
     3      2      1      8     1   0.0093946   1.3662488    1
     3      2      1      8     1-179.9939662   1.4196926    2
     3      2      1      8     1 107.4853398   1.2225443    3
     3      2      1      8     1  -0.1075640   0.9355252    4
     7      2      1      8     1-179.9906049   1.3665864    1
     7      2      1      8     1-179.9939636   1.4204789    2
     7      2      1      8     1 107.8105571   1.2232305    3
     7      2      1      8     1  -0.1069590   0.9244733    4
     3      2      1      9     1   0.0093946   1.3662488    1
     3      2      1      9     1-179.9939662   1.4196926    2
     3      2      1      9     1 107.4853398   1.2225443    3
     3      2      1      9     1  -0.1075640   0.9355252    4
     7      2      1      9     1-179.9906049   1.3665864    1
     7      2      1      9     1-179.9939636   1.4204789    2
     7      2      1      9     1 107.8105571   1.2232305    3
     7      2      1      9     1  -0.1069590   0.9244733    4
     3      2      1     10     1   0.0093946   1.3662488    1
     3      2      1     10     1-179.9939662   1.4196926    2
     3      2      1     10     1 107.4853398   1.2225443    3
     3      2      1     10     1  -0.1075640   0.9355252    4
     7      2      1     10     1-179.9906049   1.3665864    1
     7      2      1     10     1-179.9939636   1.4204789    2
     7      2      1     10     1 107.8105571   1.2232305    3
     7      2      1     10     1  -0.1069590   0.9244733    4
     1      2      3      4     1 180.0000000  15.1670000    2
     1      2      3     11     1 180.0000000  15.1670000    2
     4      3      2      7     1 180.0000000  15.1670000    2
     7      2      3     11     1 180.0000000  15.1670000    2
     1      2      7      6     1 180.0000000  15.1670000    2
     1      2      7     15     1 180.0000000  15.1670000    2
     3      2      7      6     1 180.0000000  15.1670000    2
     3      2      7     15     1 180.0000000  15.1670000    2
     2      3      4      5     1 180.0000000  15.1670000    2
     2      3      4     12     1 180.0000000  15.1670000    2
     5      4      3     11     1 180.0000000  15.1670000    2
    11      3      4     12     1 180.0000000  15.1670000    2
     3      4      5      6     1 180.0000000  15.1670000    2
     3      4      5     13     1 180.0000000  15.1670000    2
     6      5      4     12     1 180.0000000  15.1670000    2
    12      4      5     13     1 180.0000000  15.1670000    2
     4      5      6      7     1 180.0000000  15.1670000    2
     4      5      6     14     1 180.0000000  15.1670000    2
     7      6      5     13     1 180.0000000  15.1670000    2
    13      5      6     14     1 180.0000000  15.1670000    2
     2      7      6      5     1 180.0000000  15.1670000    2
     5      6      7     15     1 180.0000000  15.1670000    2
     2      7      6     14     1 180.0000000  15.1670000    2
    14      6      7     15     1 180.0000000  15.1670000    2
     1      3      2      7     4 180.0000000   4.6024000    2
     2      4      3     11     4 180.0000000   4.6024000    2
     3      5      4     12     4 180.0000000   4.6024000    2
     4      6      5     13     4 180.0000000   4.6024000    2
     5      7      6     14     4 180.0000000   4.6024000    2
     2      6      7     15     4 180.0000000   4.6024000    2

[ system ]
; Name
Toluene_maple

[ molecules ]
; Compound       #mols
MOL                 1

