; File Toluene_maple.top was generated by MAPLE parmfit
; This is a standalone topology file
[ defaults ]
; nbfunc        comb-rule       gen-pairs       fudgeLJ fudgeQQ
1               2               yes             0.5     0.83333333

[ atomtypes ]
; name    at.num    mass    charge ptype  sigma      epsilon
c3              6   12.011000  0.00000000  A    0.33977095     0.4510352
ca              6   12.011000  0.00000000  A    0.33152123     0.4133792
hc              1    1.008000  0.00000000  A    0.26001770     0.0870272
ha              1    1.008000  0.00000000  A    0.26254785     0.0673624

[ moleculetype ]
; Name            nrexcl
MOL             3

[ atoms ]
; nr       type  resnr residue  atom   cgnr    charge       mass
; residue    1 MOL rtp MOL q 0.0
    1         c3      1     MOL     C7      1  -0.05380000   12.011000
    2         ca      1     MOL     C1      2  -0.07730000   12.011000
    3         ca      1     MOL     C2      3  -0.11300000   12.011000
    4         ca      1     MOL     C3      4  -0.10850000   12.011000
    5         ca      1     MOL     C4      5  -0.11700000   12.011000
    6         ca      1     MOL     C5      6  -0.10850000   12.011000
    7         ca      1     MOL     C6      7  -0.11300000   12.011000
    8         hc      1     MOL    H71      8  0.04336700    1.008000
    9         hc      1     MOL    H72      9  0.04336700    1.008000
   10         hc      1     MOL    H73     10  0.04336700    1.008000
   11         ha      1     MOL     H2     11  0.11200000    1.008000
   12         ha      1     MOL     H3     12  0.11200000    1.008000
   13         ha      1     MOL     H4     13  0.11200000    1.008000
   14         ha      1     MOL     H5     14  0.11200000    1.008000
   15         ha      1     MOL     H6     15  0.11200000    1.008000

[ bonds ]
; ai     aj funct         c0         c1
     1      2     1     0.15020 216794.709804
     1      8     1     0.10885 299458.652287
     1      9     1     0.10905 294828.963563
     1     10     1     0.10905 294841.427925
     2      3     1     0.13889 323720.222645
     2      7     1     0.13927 314967.715185
     3      4     1     0.13875 338636.431450
     3     11     1     0.10835 314555.310899
     4      5     1     0.13855 337849.613264
     4     12     1     0.10822 318822.385571
     5      6     1     0.13887 331271.572156
     5     13     1     0.10809 321490.336273
     6      7     1     0.13846 341145.237214
     6     14     1     0.10824 318410.731322
     7     15     1     0.10840 313551.724428

[ pairs ]
; ai     aj funct
     1      4     1
     1      6     1
     1     11     1
     1     15     1
     2      5     1
     2     12     1
     2     14     1
     3      6     1
     3      8     1
     3      9     1
     3     10     1
     3     13     1
     3     15     1
     4      7     1
     4     14     1
     5     11     1
     5     15     1
     6     12     1
     7      8     1
     7      9     1
     7     10     1
     7     11     1
     7     13     1
    11     12     1
    12     13     1
    13     14     1
    14     15     1

[ angles ]
; ai     aj     ak funct         c0         c1
     2      1      8     1  110.877262    436.158751
     2      1      9     1  110.924431    463.032983
     2      1     10     1  110.924425    455.304952
     8      1      9     1  108.150363    273.751698
     8      1     10     1  108.150665    251.652008
     9      1     10     1  107.687468    253.170931
     1      2      3     1  120.802946    813.813193
     1      2      7     1  120.527038    815.325909
     3      2      7     1  118.670016    954.678439
     2      3      4     1  120.826975    965.385877
     2      3     11     1  119.176591    279.862911
     4      3     11     1  119.996434    284.032858
     3      4      5     1  120.028741    955.174657
     3      4     12     1  119.816995    287.305964
     5      4     12     1  120.154263    282.283378
     4      5      6     1  119.653132    903.209344
     4      5     13     1  120.170518    276.611297
     6      5     13     1  120.176350    276.782829
     5      6      7     1  120.086236    909.014373
     5      6     14     1  119.966395    279.140997
     7      6     14     1  119.947369    279.092764
     2      7      6     1  120.734899    898.834395
     2      7     15     1  119.326142    281.340402
     6      7     15     1  119.938959    281.861632

[ dihedrals ]
; ai     aj     ak     al funct         c0         c1    mult
     3      2      1      8     1   0.0093131   1.3690275    1
     3      2      1      8     1-179.9939708   1.4199287    2
     3      2      1      8     1 107.4948158   1.2282919    3
     3      2      1      8     1  -0.1067422   0.9379306    4
     7      2      1      8     1-179.9906862   1.3693603    1
     7      2      1      8     1-179.9939676   1.4207221    2
     7      2      1      8     1 107.8234112   1.2289548    3
     7      2      1      8     1  -0.1061735   0.9274601    4
     3      2      1      9     1   0.0093131   1.3690275    1
     3      2      1      9     1-179.9939708   1.4199287    2
     3      2      1      9     1 107.4948158   1.2282919    3
     3      2      1      9     1  -0.1067422   0.9379306    4
     7      2      1      9     1-179.9906862   1.3693603    1
     7      2      1      9     1-179.9939676   1.4207221    2
     7      2      1      9     1 107.8234112   1.2289548    3
     7      2      1      9     1  -0.1061735   0.9274601    4
     3      2      1     10     1   0.0093131   1.3690275    1
     3      2      1     10     1-179.9939708   1.4199287    2
     3      2      1     10     1 107.4948158   1.2282919    3
     3      2      1     10     1  -0.1067422   0.9379306    4
     7      2      1     10     1-179.9906862   1.3693603    1
     7      2      1     10     1-179.9939676   1.4207221    2
     7      2      1     10     1 107.8234112   1.2289548    3
     7      2      1     10     1  -0.1061735   0.9274601    4
     1      2      3      4     1 180.0000000  15.1670000    2
     1      2      3     11     1 180.0000000  15.1670000    2
     4      3      2      7     1 180.0000000  15.1670000    2
     7      2      3     11     1 180.0000000  15.1670000    2
     1      2      7      6     1 180.0000000  15.1670000    2
     1      2      7     15     1 180.0000000  15.1670000    2
     3      2      7      6     1 180.0000000  15.1670000    2
     3      2      7     15     1 180.0000000  15.1670000    2
     2      3      4      5     1 180.0000000  15.1670000    2
     2      3      4     12     1 180.0000000  15.1670000    2
     5      4      3     11     1 180.0000000  15.1670000    2
    11      3      4     12     1 180.0000000  15.1670000    2
     3      4      5      6     1 180.0000000  15.1670000    2
     3      4      5     13     1 180.0000000  15.1670000    2
     6      5      4     12     1 180.0000000  15.1670000    2
    12      4      5     13     1 180.0000000  15.1670000    2
     4      5      6      7     1 180.0000000  15.1670000    2
     4      5      6     14     1 180.0000000  15.1670000    2
     7      6      5     13     1 180.0000000  15.1670000    2
    13      5      6     14     1 180.0000000  15.1670000    2
     2      7      6      5     1 180.0000000  15.1670000    2
     5      6      7     15     1 180.0000000  15.1670000    2
     2      7      6     14     1 180.0000000  15.1670000    2
    14      6      7     15     1 180.0000000  15.1670000    2
     1      3      2      7     4 180.0000000   4.6024000    2
     2      4      3     11     4 180.0000000   4.6024000    2
     3      5      4     12     4 180.0000000   4.6024000    2
     4      6      5     13     4 180.0000000   4.6024000    2
     5      7      6     14     4 180.0000000   4.6024000    2
     2      6      7     15     4 180.0000000   4.6024000    2

[ system ]
; Name
Toluene_maple

[ molecules ]
; Compound       #mols
MOL                 1

